! Touchstone file exported from HFSS 2022.1.0
!        File:           E:/ZhonghaoZhang/Birdcage_2coils/Correct_AfCo_BodyCoilOnly_16Leg_short_20222_9WL.aedt
!        Generated:      10:34:33 AM  May 17, 2025
!        Design:         Nothing
!        Project:        Correct_AfCo_BodyCoilOnly_16Leg_short_20222_9WL
!        Setup:          H
!        Solution:       LastAdaptive
!
! Variables:
!        $Angle_1 = 45deg
!        $Angle_2 = 9deg
!        $Angle_3 = 90deg
!        $Cap_W = 1cm
!        $Cd = 9.14146pF
!        $Cm = 31.717pF
!        $Cm1 = 31.1814pF
!        $Cmp = 24.4844pF
!        $Cmp1 = 10.0864pF
!        $Cms1_BC = 10pF
!        $Cms_BC = 10pF
!        $CoilPortW = 1mm
!        $CoilW = 10mm
!        $Coil_R = 30cm
!        $Coil_R2 = 35cm
!        $Coil_R_wl = 14cm
!        $Copper_W = 2cm
!        $Ct = 13.0575pF
!        $Ct1 = 15.9999pF
!        $Ct2 = 11.1818pF
!        $H_Grad = 0cm
!        $H_WP2 = -15cm
!        $Loop_L = 60cm
!        $Loop_W = 11.7809724509617cm
!        $Loop_W_wl = 200mm
!        $R_Grad = 31cm
!        $R_WP = 4.5cm
!        $R_WP2 = 7cm
!        $R_coil2 = 150mm
!        $Shield_L = 120cm
!        $WLCd = 43.0506pF
!        $WLct = 27.1995pF
!        $balance = -45deg
!        $move_ay_x = 0mm
!        $move_ay_y = 0mm
!        $move_ay_z = 0mm
!        $move_hum = 0cm
!        $move_hum2 = 0mm
!        $move_hum3 = 90mm
!        Cm_TW = 0pF
!        Ct1 = 15.9999pF
!        Ct_loop = 0pF
!        L_WP = 0
!        Ls2 = 0nH
!        Rotate_deg = 90deg
!
# GHz S MA R 50.000000
! Terminal data exported
! Port[1] = 1
! Port[2] = 4
! Port[3] = Cd
! Port[4] = ct1
! Port[5] = ct2
! Port[6] = ct3
! Port[7] = ct4
! Port[8] = ct5
! Port[9] = ct6
0.128                          0.415034428827585 21.1440522316219 0.120023400617454 -137.948501274087 0.0315811920547975 -19.1621477114705 0.0560077349323643 -20.1060237527979 
                               0.024449309409642 170.759099707153 0.0219176841928349 -172.703701584331 0.0191217872099534 -178.275819623763 0.0491081354701537 -16.2062420079731 
                               0.0532470973169751 -20.4998839071408 
                               0.120023400815444 -137.948501377284 0.315289785742259 37.9194015732754 0.0191161260152317 164.575635058183 0.0525476907246721 -7.48040658660674 
                               0.0716795016616198 167.653100352347 0.0666404995148069 169.553443355789 0.0615079478491436 172.43984739665  0.0435899232169885 -0.611481998230056 
                               0.0476015918584027 0.295913439398682 
                               0.031581192058889 -19.1621477111979 0.0191161260200183 164.575635084633 0.593984760480244 33.0898761735004 0.324448646306942 139.585327416038 
                               0.324519591355739 139.539835083015 0.331201945559392 138.137092539548 0.321549301139808 140.660280479059 0.321458799531199 140.698985345177 
                               0.331114004792698 138.175076249653 
                               0.0560077349196051 -20.1060237514997 0.0525476907210801 -7.48040659995666 0.324448646306734 139.585327415929 0.70905482612054 14.11823955982   
                               0.0781557298490225 -38.6407900697775 0.0924326614481519 -51.8039738727438 0.100581878052829 -56.3905623464905 0.424957484130929 135.413612361055 
                               0.406669003121706 138.859255741111 
                               0.0244493093932563 170.759099719386 0.0716795016660603 167.653100348781 0.324519591355907 139.539835083101 0.0781557298487072 -38.6407900701775 
                               0.70922997010189 14.1370107022167 0.4067025493658  138.829054511148 0.42501840965889 135.384053076193 0.100595065976219 -56.3627513267011 
                               0.0924663020112231 -51.7909560888848 
                               0.0219176841791682 -172.703701562442 0.0666404995205955 169.553443352197 0.331201945559465 138.137092539642 0.0924326614479598 -51.803973873084 
                               0.406702549365893 138.829054511127 0.717935427458845 15.7906900972989 0.406186008807483 138.920603810491 0.0890118642517253 -49.7558018127959 
                               0.0935975823603024 -52.9876663020577 
                               0.0191217871962115 -178.275819606436 0.0615079478536836 172.439847393366 0.321549301139826 140.660280479167 0.100581878052876 -56.3905623468329 
                               0.425018409658956 135.384053076191 0.406186008807637 138.920603810471 0.713053906981901 14.8874655055635 0.075927892026696 -37.742427503661 
                               0.0890165407127459 -49.7635489793328 
                               0.0491081354594074 -16.2062420071747 0.0435899232130896 -0.611482011768638 0.321458799531118 140.69898534509  0.424957484131039 135.413612361075 
                               0.100595065976338 -56.3627513263398 0.0890118642518727 -49.7558018124113 0.0759278920269941 -37.7424275033974 0.712906945930069 14.8774171750956 
                               0.406135729452777 138.955464784611 
                               0.0532470973054666 -20.4998839074614 0.0476015918531498 0.295913426722076 0.331114004792609 138.17507624956  0.406669003122058 138.859255741086 
                               0.0924663020114356 -51.7909560884778 0.0935975823604873 -52.9876663016789 0.0890165407129132 -49.7635489789947 0.406135729452634 138.955464784637 
                               0.71774939830395 15.7774130657256 
! Gamma         0                0                0                0                0                0                0                0                0                0                0                0                0                0                0                0                0                0                
! Port Impedance         50               0                50               0                50               0                50               0                50               0                50               0                50               0                50               0                50               0                
